ITEM: TIMESTEP
0
ITEM: BOX BOUNDS
-1.2 1.22
-0.3 0.305
-0.3 0.305
ITEM: NUMBER OF SURFS
2852
ITEM: SURFACES
1 0 -0.029 0.185 0.015 0.000 0.190 0.032 0.000 0.190 0.000
2 0 0.036 0.176 0.036 0.032 0.190 0.000 0.000 0.190 0.032
3 0 0.015 0.185 -0.029 0.000 0.190 0.000 0.032 0.190 0.000
4 0 -0.027 0.174 0.047 0.000 0.190 0.032 -0.029 0.185 0.015
5 0 -0.027 0.185 -0.017 -0.029 0.185 0.015 0.000 0.190 0.000
6 0 0.060 0.169 0.010 0.032 0.190 0.000 0.036 0.176 0.036
7 0 0.010 0.169 0.060 0.036 0.176 0.036 0.000 0.190 0.032
8 0 -0.027 0.185 -0.017 0.000 0.190 0.000 0.015 0.185 -0.029
9 0 0.048 0.174 -0.027 0.015 0.185 -0.029 0.032 0.190 0.000
10 0 0.010 0.169 0.060 0.000 0.190 0.032 -0.027 0.174 0.047
11 0 -0.055 0.168 0.029 -0.027 0.174 0.047 -0.029 0.185 0.015
12 0 -0.055 0.174 -0.003 -0.029 0.185 0.015 -0.027 0.185 -0.017
13 0 0.048 0.174 -0.027 0.032 0.190 0.000 0.060 0.169 0.010
14 0 0.063 0.154 0.043 0.060 0.169 0.010 0.036 0.176 0.036
15 0 0.043 0.154 0.063 0.036 0.176 0.036 0.010 0.169 0.060
16 0 -0.014 0.175 -0.051 -0.027 0.185 -0.017 0.015 0.185 -0.029
17 0 0.029 0.167 -0.056 0.015 0.185 -0.029 0.048 0.174 -0.027
18 0 -0.018 0.153 0.076 0.010 0.169 0.060 -0.027 0.174 0.047
19 0 -0.050 0.153 0.059 -0.027 0.174 0.047 -0.055 0.168 0.029
20 0 -0.055 0.174 -0.003 -0.055 0.168 0.029 -0.029 0.185 0.015
21 0 -0.050 0.169 -0.036 -0.055 0.174 -0.003 -0.027 0.185 -0.017
22 0 0.076 0.152 -0.018 0.048 0.174 -0.027 0.060 0.169 0.010
23 0 0.084 0.142 0.016 0.060 0.169 0.010 0.063 0.154 0.043
24 0 0.043 0.154 0.063 0.063 0.154 0.043 0.036 0.176 0.036
25 0 0.016 0.143 0.083 0.043 0.154 0.063 0.010 0.169 0.060
26 0 -0.050 0.169 -0.036 -0.027 0.185 -0.017 -0.014 0.175 -0.051
27 0 0.029 0.167 -0.056 -0.014 0.175 -0.051 0.015 0.185 -0.029
28 0 0.060 0.151 -0.052 0.029 0.167 -0.056 0.048 0.174 -0.027
29 0 0.016 0.143 0.083 0.010 0.169 0.060 -0.018 0.153 0.076
30 0 -0.050 0.153 0.059 -0.018 0.153 0.076 -0.027 0.174 0.047
31 0 -0.075 0.144 0.039 -0.050 0.153 0.059 -0.055 0.168 0.029
32 0 -0.077 0.154 0.010 -0.055 0.168 0.029 -0.055 0.174 -0.003
33 0 -0.075 0.153 -0.020 -0.055 0.174 -0.003 -0.050 0.169 -0.036
34 0 0.060 0.151 -0.052 0.048 0.174 -0.027 0.076 0.152 -0.018
35 0 0.084 0.142 0.016 0.076 0.152 -0.018 0.060 0.169 0.010
36 0 0.082 0.125 0.046 0.084 0.142 0.016 0.063 0.154 0.043
37 0 0.064 0.130 0.065 0.063 0.154 0.043 0.043 0.154 0.063
38 0 0.064 0.130 0.065 0.043 0.154 0.063 0.016 0.143 0.083
39 0 -0.039 0.153 -0.067 -0.050 0.169 -0.036 -0.014 0.175 -0.051
40 0 0.001 0.152 -0.079 -0.014 0.175 -0.051 0.029 0.167 -0.056
41 0 0.038 0.140 -0.078 0.029 0.167 -0.056 0.060 0.151 -0.052
42 0 -0.011 0.122 0.094 0.016 0.143 0.083 -0.018 0.153 0.076
43 0 -0.042 0.128 0.082 -0.018 0.153 0.076 -0.050 0.153 0.059
44 0 -0.068 0.125 0.065 -0.050 0.153 0.059 -0.075 0.144 0.039
45 0 -0.077 0.154 0.010 -0.075 0.144 0.039 -0.055 0.168 0.029
46 0 -0.075 0.153 -0.020 -0.077 0.154 0.010 -0.055 0.174 -0.003
47 0 -0.067 0.144 -0.051 -0.075 0.153 -0.020 -0.050 0.169 -0.036
48 0 0.084 0.125 -0.041 0.060 0.151 -0.052 0.076 0.152 -0.018
49 0 0.094 0.122 -0.011 0.076 0.152 -0.018 0.084 0.142 0.016
50 0 0.096 0.110 0.019 0.084 0.142 0.016 0.082 0.125 0.046
51 0 0.064 0.130 0.065 0.082 0.125 0.046 0.063 0.154 0.043
52 0 0.039 0.109 0.090 0.064 0.130 0.065 0.016 0.143 0.083
53 0 -0.067 0.144 -0.051 -0.050 0.169 -0.036 -0.039 0.153 -0.067
54 0 0.001 0.152 -0.079 -0.039 0.153 -0.067 -0.014 0.175 -0.051
55 0 0.038 0.140 -0.078 0.001 0.152 -0.079 0.029 0.167 -0.056
56 0 0.066 0.120 -0.069 0.038 0.140 -0.078 0.060 0.151 -0.052
57 0 0.039 0.109 0.090 0.016 0.143 0.083 -0.011 0.122 0.094
58 0 -0.042 0.128 0.082 -0.011 0.122 0.094 -0.018 0.153 0.076
59 0 -0.068 0.125 0.065 -0.042 0.128 0.082 -0.050 0.153 0.059
60 0 -0.088 0.114 0.042 -0.068 0.125 0.065 -0.075 0.144 0.039
61 0 -0.091 0.127 0.018 -0.075 0.144 0.039 -0.077 0.154 0.010
62 0 -0.091 0.127 0.018 -0.077 0.154 0.010 -0.075 0.153 -0.020
63 0 -0.088 0.125 -0.033 -0.075 0.153 -0.020 -0.067 0.144 -0.051
64 0 0.066 0.120 -0.069 0.060 0.151 -0.052 0.084 0.125 -0.041
65 0 0.094 0.122 -0.011 0.084 0.125 -0.041 0.076 0.152 -0.018
66 0 0.096 0.110 0.019 0.094 0.122 -0.011 0.084 0.142 0.016
67 0 0.089 0.093 0.046 0.096 0.110 0.019 0.082 0.125 0.046
68 0 0.089 0.093 0.046 0.082 0.125 0.046 0.064 0.130 0.065
69 0 0.070 0.091 0.072 0.064 0.130 0.065 0.039 0.109 0.090
70 0 -0.055 0.124 -0.076 -0.067 0.144 -0.051 -0.039 0.153 -0.067
71 0 -0.024 0.126 -0.090 -0.039 0.153 -0.067 0.001 0.152 -0.079
72 0 0.011 0.120 -0.095 0.001 0.152 -0.079 0.038 0.140 -0.078
73 0 0.041 0.107 -0.090 0.038 0.140 -0.078 0.066 0.120 -0.069
74 0 0.006 0.082 0.099 0.039 0.109 0.090 -0.011 0.122 0.094
75 0 -0.035 0.095 0.094 -0.011 0.122 0.094 -0.042 0.128 0.082
76 0 -0.057 0.099 0.082 -0.042 0.128 0.082 -0.068 0.125 0.065
77 0 -0.077 0.094 0.064 -0.068 0.125 0.065 -0.088 0.114 0.042
78 0 -0.091 0.127 0.018 -0.088 0.114 0.042 -0.075 0.144 0.039
79 0 -0.088 0.125 -0.033 -0.091 0.127 0.018 -0.075 0.153 -0.020
80 0 -0.055 0.124 -0.076 -0.088 0.125 -0.033 -0.067 0.144 -0.051
81 0 0.084 0.095 -0.055 0.066 0.120 -0.069 0.084 0.125 -0.041
82 0 0.095 0.096 -0.031 0.084 0.125 -0.041 0.094 0.122 -0.011
83 0 0.100 0.090 -0.007 0.094 0.122 -0.011 0.096 0.110 0.019
84 0 0.097 0.076 0.018 0.096 0.110 0.019 0.089 0.093 0.046
85 0 0.070 0.091 0.072 0.089 0.093 0.046 0.064 0.130 0.065
86 0 0.041 0.069 0.089 0.070 0.091 0.072 0.039 0.109 0.090
87 0 -0.024 0.126 -0.090 -0.055 0.124 -0.076 -0.039 0.153 -0.067
88 0 0.011 0.120 -0.095 -0.024 0.126 -0.090 0.001 0.152 -0.079
89 0 0.041 0.107 -0.090 0.011 0.120 -0.095 0.038 0.140 -0.078
90 0 0.065 0.087 -0.076 0.041 0.107 -0.090 0.066 0.120 -0.069
91 0 0.041 0.069 0.089 0.039 0.109 0.090 0.006 0.082 0.099
92 0 -0.035 0.095 0.094 0.006 0.082 0.099 -0.011 0.122 0.094
93 0 -0.057 0.099 0.082 -0.035 0.095 0.094 -0.042 0.128 0.082
94 0 -0.077 0.094 0.064 -0.057 0.099 0.082 -0.068 0.125 0.065
95 0 -0.092 0.083 0.039 -0.077 0.094 0.064 -0.088 0.114 0.042
96 0 -0.098 0.096 0.018 -0.088 0.114 0.042 -0.091 0.127 0.018
97 0 -0.098 0.096 0.018 -0.091 0.127 0.018 -0.088 0.125 -0.033
98 0 -0.080 0.090 -0.060 -0.088 0.125 -0.033 -0.055 0.124 -0.076
99 0 0.065 0.087 -0.076 0.066 0.120 -0.069 0.084 0.095 -0.055
100 0 0.095 0.096 -0.031 0.084 0.095 -0.055 0.084 0.125 -0.041
101 0 0.100 0.090 -0.007 0.095 0.096 -0.031 0.094 0.122 -0.011
102 0 0.097 0.076 0.018 0.100 0.090 -0.007 0.096 0.110 0.019
103 0 0.084 0.059 0.044 0.097 0.076 0.018 0.089 0.093 0.046
104 0 0.084 0.059 0.044 0.089 0.093 0.046 0.070 0.091 0.072
105 0 0.084 0.059 0.044 0.070 0.091 0.072 0.041 0.069 0.089
106 0 -0.041 0.093 -0.091 -0.055 0.124 -0.076 -0.024 0.126 -0.090
107 0 -0.012 0.093 -0.099 -0.024 0.126 -0.090 0.011 0.120 -0.095
108 0 0.016 0.086 -0.099 0.011 0.120 -0.095 0.041 0.107 -0.090
109 0 0.038 0.074 -0.091 0.041 0.107 -0.090 0.065 0.087 -0.076
110 0 0.010 0.042 0.087 0.041 0.069 0.089 0.006 0.082 0.099
111 0 -0.023 0.057 0.091 0.006 0.082 0.099 -0.035 0.095 0.094
112 0 -0.050 0.070 0.084 -0.035 0.095 0.094 -0.057 0.099 0.082
113 0 -0.050 0.070 0.084 -0.057 0.099 0.082 -0.077 0.094 0.064
114 0 -0.077 0.063 0.058 -0.077 0.094 0.064 -0.092 0.083 0.039
115 0 -0.098 0.096 0.018 -0.092 0.083 0.039 -0.088 0.114 0.042
116 0 -0.096 0.080 -0.026 -0.098 0.096 0.018 -0.088 0.125 -0.033
117 0 -0.096 0.080 -0.026 -0.088 0.125 -0.033 -0.080 0.090 -0.060
118 0 -0.041 0.093 -0.091 -0.080 0.090 -0.060 -0.055 0.124 -0.076
119 0 0.077 0.065 -0.058 0.065 0.087 -0.076 0.084 0.095 -0.055
120 0 0.077 0.065 -0.058 0.084 0.095 -0.055 0.095 0.096 -0.031
121 0 0.094 0.067 -0.025 0.095 0.096 -0.031 0.100 0.090 -0.007
122 0 0.094 0.067 -0.025 0.100 0.090 -0.007 0.097 0.076 0.018
123 0 0.087 0.042 0.012 0.097 0.076 0.018 0.084 0.059 0.044
124 0 0.050 0.030 0.062 0.084 0.059 0.044 0.041 0.069 0.089
125 0 -0.012 0.093 -0.099 -0.041 0.093 -0.091 -0.024 0.126 -0.090
126 0 0.016 0.086 -0.099 -0.012 0.093 -0.099 0.011 0.120 -0.095
127 0 0.038 0.074 -0.091 0.016 0.086 -0.099 0.041 0.107 -0.090
128 0 0.058 0.056 -0.074 0.038 0.074 -0.091 0.065 0.087 -0.076
129 0 0.050 0.030 0.062 0.041 0.069 0.089 0.010 0.042 0.087
130 0 -0.023 0.057 0.091 0.010 0.042 0.087 0.006 0.082 0.099
131 0 -0.050 0.070 0.084 -0.023 0.057 0.091 -0.035 0.095 0.094
132 0 -0.077 0.063 0.058 -0.050 0.070 0.084 -0.077 0.094 0.064
133 0 -0.088 0.053 0.031 -0.077 0.063 0.058 -0.092 0.083 0.039
134 0 -0.088 0.053 0.031 -0.092 0.083 0.039 -0.098 0.096 0.018
135 0 -0.088 0.053 0.031 -0.098 0.096 0.018 -0.096 0.080 -0.026
136 0 -0.077 0.049 -0.048 -0.096 0.080 -0.026 -0.080 0.090 -0.060
137 0 -0.057 0.057 -0.075 -0.080 0.090 -0.060 -0.041 0.093 -0.091
138 0 0.058 0.056 -0.074 0.065 0.087 -0.076 0.077 0.065 -0.058
139 0 0.094 0.067 -0.025 0.077 0.065 -0.058 0.095 0.096 -0.031
140 0 0.087 0.042 0.012 0.094 0.067 -0.025 0.097 0.076 0.018
141 0 0.050 0.030 0.062 0.087 0.042 0.012 0.084 0.059 0.044
142 0 -0.026 0.063 -0.093 -0.041 0.093 -0.091 -0.012 0.093 -0.099
143 0 -0.026 0.063 -0.093 -0.012 0.093 -0.099 0.016 0.086 -0.099
144 0 0.013 0.056 -0.093 0.016 0.086 -0.099 0.038 0.074 -0.091
145 0 0.013 0.056 -0.093 0.038 0.074 -0.091 0.058 0.056 -0.074
146 0 0.011 0.009 0.057 0.050 0.030 0.062 0.010 0.042 0.087
147 0 -0.020 0.024 0.072 0.010 0.042 0.087 -0.023 0.057 0.091
148 0 -0.045 0.039 0.073 -0.023 0.057 0.091 -0.050 0.070 0.084
149 0 -0.045 0.039 0.073 -0.050 0.070 0.084 -0.077 0.063 0.058
150 0 -0.065 0.031 0.047 -0.077 0.063 0.058 -0.088 0.053 0.031
151 0 -0.082 0.034 -0.014 -0.088 0.053 0.031 -0.096 0.080 -0.026
152 0 -0.082 0.034 -0.014 -0.096 0.080 -0.026 -0.077 0.049 -0.048
153 0 -0.057 0.057 -0.075 -0.077 0.049 -0.048 -0.080 0.090 -0.060
154 0 -0.026 0.063 -0.093 -0.057 0.057 -0.075 -0.041 0.093 -0.091
155 0 0.067 0.036 -0.051 0.058 0.056 -0.074 0.077 0.065 -0.058
156 0 0.067 0.036 -0.051 0.077 0.065 -0.058 0.094 0.067 -0.025
157 0 0.067 0.036 -0.051 0.094 0.067 -0.025 0.087 0.042 0.012
158 0 0.052 0.007 0.018 0.087 0.042 0.012 0.050 0.030 0.062
159 0 0.013 0.056 -0.093 -0.026 0.063 -0.093 0.016 0.086 -0.099
160 0 0.031 0.028 -0.072 0.013 0.056 -0.093 0.058 0.056 -0.074
161 0 0.052 0.007 0.018 0.050 0.030 0.062 0.011 0.009 0.057
162 0 -0.020 0.024 0.072 0.011 0.009 0.057 0.010 0.042 0.087
163 0 -0.045 0.039 0.073 -0.020 0.024 0.072 -0.023 0.057 0.091
164 0 -0.065 0.031 0.047 -0.045 0.039 0.073 -0.077 0.063 0.058
165 0 -0.074 0.024 0.011 -0.065 0.031 0.047 -0.088 0.053 0.031
166 0 -0.074 0.024 0.011 -0.088 0.053 0.031 -0.082 0.034 -0.014
167 0 -0.057 0.018 -0.039 -0.082 0.034 -0.014 -0.077 0.049 -0.048
168 0 -0.057 0.018 -0.039 -0.077 0.049 -0.048 -0.057 0.057 -0.075
169 0 -0.030 0.030 -0.074 -0.057 0.057 -0.075 -0.026 0.063 -0.093
170 0 0.031 0.028 -0.072 0.058 0.056 -0.074 0.067 0.036 -0.051
171 0 0.056 0.008 -0.010 0.067 0.036 -0.051 0.087 0.042 0.012
172 0 0.056 0.008 -0.010 0.087 0.042 0.012 0.052 0.007 0.018
173 0 -0.030 0.030 -0.074 -0.026 0.063 -0.093 0.013 0.056 -0.093
174 0 -0.030 0.030 -0.074 0.013 0.056 -0.093 0.031 0.028 -0.072
175 0 0.008 -0.009 0.014 0.052 0.007 0.018 0.011 0.009 0.057
176 0 -0.024 0.002 0.040 0.011 0.009 0.057 -0.020 0.024 0.072
177 0 -0.024 0.002 0.040 -0.020 0.024 0.072 -0.045 0.039 0.073
178 0 -0.024 0.002 0.040 -0.045 0.039 0.073 -0.065 0.031 0.047
179 0 -0.024 0.002 0.040 -0.065 0.031 0.047 -0.074 0.024 0.011
180 0 -0.057 0.018 -0.039 -0.074 0.024 0.011 -0.082 0.034 -0.014
181 0 -0.030 0.030 -0.074 -0.057 0.018 -0.039 -0.057 0.057 -0.075
182 0 0.040 0.006 -0.036 0.031 0.028 -0.072 0.067 0.036 -0.051
183 0 0.040 0.006 -0.036 0.067 0.036 -0.051 0.056 0.008 -0.010
184 0 0.008 -0.009 0.014 0.056 0.008 -0.010 0.052 0.007 0.018
185 0 -0.001 0.002 -0.047 -0.030 0.030 -0.074 0.031 0.028 -0.072
186 0 -0.024 0.002 0.040 0.008 -0.009 0.014 0.011 0.009 0.057
187 0 -0.037 -0.003 -0.007 -0.024 0.002 0.040 -0.074 0.024 0.011
188 0 -0.037 -0.003 -0.007 -0.074 0.024 0.011 -0.057 0.018 -0.039
189 0 -0.001 0.002 -0.047 -0.057 0.018 -0.039 -0.030 0.030 -0.074
190 0 -0.001 0.002 -0.047 0.031 0.028 -0.072 0.040 0.006 -0.036
191 0 0.008 -0.009 0.014 0.040 0.006 -0.036 0.056 0.008 -0.010
192 0 -0.037 -0.003 -0.007 0.008 -0.009 0.014 -0.024 0.002 0.040
193 0 -0.001 0.002 -0.047 -0.037 -0.003 -0.007 -0.057 0.018 -0.039
194 0 0.008 -0.009 0.014 -0.001 0.002 -0.047 0.040 0.006 -0.036
195 0 0.008 -0.009 0.014 -0.037 -0.003 -0.007 -0.001 0.002 -0.047
196 0 0.000 0.190 0.032 0.032 0.190 0.000 0.000 0.190 0.000
197 0 0.201 0.185 0.015 0.230 0.190 0.032 0.230 0.190 0.000
198 0 0.266 0.176 0.036 0.262 0.190 0.000 0.230 0.190 0.032
199 0 0.245 0.185 -0.029 0.230 0.190 0.000 0.262 0.190 0.000
200 0 0.203 0.174 0.047 0.230 0.190 0.032 0.201 0.185 0.015
201 0 0.203 0.185 -0.017 0.201 0.185 0.015 0.230 0.190 0.000
202 0 0.290 0.169 0.010 0.262 0.190 0.000 0.266 0.176 0.036
203 0 0.240 0.169 0.060 0.266 0.176 0.036 0.230 0.190 0.032
204 0 0.203 0.185 -0.017 0.230 0.190 0.000 0.245 0.185 -0.029
205 0 0.278 0.174 -0.027 0.245 0.185 -0.029 0.262 0.190 0.000
206 0 0.240 0.169 0.060 0.230 0.190 0.032 0.203 0.174 0.047
207 0 0.175 0.168 0.029 0.203 0.174 0.047 0.201 0.185 0.015
208 0 0.175 0.174 -0.003 0.201 0.185 0.015 0.203 0.185 -0.017
209 0 0.278 0.174 -0.027 0.262 0.190 0.000 0.290 0.169 0.010
210 0 0.293 0.154 0.043 0.290 0.169 0.010 0.266 0.176 0.036
211 0 0.273 0.154 0.063 0.266 0.176 0.036 0.240 0.169 0.060
212 0 0.216 0.175 -0.051 0.203 0.185 -0.017 0.245 0.185 -0.029
213 0 0.259 0.167 -0.056 0.245 0.185 -0.029 0.278 0.174 -0.027
214 0 0.212 0.153 0.076 0.240 0.169 0.060 0.203 0.174 0.047
215 0 0.180 0.153 0.059 0.203 0.174 0.047 0.175 0.168 0.029
216 0 0.175 0.174 -0.003 0.175 0.168 0.029 0.201 0.185 0.015
217 0 0.180 0.169 -0.036 0.175 0.174 -0.003 0.203 0.185 -0.017
218 0 0.306 0.152 -0.018 0.278 0.174 -0.027 0.290 0.169 0.010
219 0 0.314 0.142 0.016 0.290 0.169 0.010 0.293 0.154 0.043
220 0 0.273 0.154 0.063 0.293 0.154 0.043 0.266 0.176 0.036
221 0 0.246 0.143 0.083 0.273 0.154 0.063 0.240 0.169 0.060
222 0 0.180 0.169 -0.036 0.203 0.185 -0.017 0.216 0.175 -0.051
223 0 0.259 0.167 -0.056 0.216 0.175 -0.051 0.245 0.185 -0.029
224 0 0.290 0.151 -0.052 0.259 0.167 -0.056 0.278 0.174 -0.027
225 0 0.246 0.143 0.083 0.240 0.169 0.060 0.212 0.153 0.076
226 0 0.180 0.153 0.059 0.212 0.153 0.076 0.203 0.174 0.047
227 0 0.155 0.144 0.039 0.180 0.153 0.059 0.175 0.168 0.029
228 0 0.153 0.154 0.010 0.175 0.168 0.029 0.175 0.174 -0.003
229 0 0.155 0.153 -0.020 0.175 0.174 -0.003 0.180 0.169 -0.036
230 0 0.290 0.151 -0.052 0.278 0.174 -0.027 0.306 0.152 -0.018
231 0 0.314 0.142 0.016 0.306 0.152 -0.018 0.290 0.169 0.010
232 0 0.312 0.125 0.046 0.314 0.142 0.016 0.293 0.154 0.043
233 0 0.294 0.130 0.065 0.293 0.154 0.043 0.273 0.154 0.063
234 0 0.294 0.130 0.065 0.273 0.154 0.063 0.246 0.143 0.083
235 0 0.191 0.153 -0.067 0.180 0.169 -0.036 0.216 0.175 -0.051
236 0 0.231 0.152 -0.079 0.216 0.175 -0.051 0.259 0.167 -0.056
237 0 0.268 0.140 -0.078 0.259 0.167 -0.056 0.290 0.151 -0.052
238 0 0.219 0.122 0.094 0.246 0.143 0.083 0.212 0.153 0.076
239 0 0.188 0.128 0.082 0.212 0.153 0.076 0.180 0.153 0.059
240 0 0.162 0.125 0.065 0.180 0.153 0.059 0.155 0.144 0.039
241 0 0.153 0.154 0.010 0.155 0.144 0.039 0.175 0.168 0.029
242 0 0.155 0.153 -0.020 0.153 0.154 0.010 0.175 0.174 -0.003
243 0 0.163 0.144 -0.051 0.155 0.153 -0.020 0.180 0.169 -0.036
244 0 0.314 0.125 -0.041 0.290 0.151 -0.052 0.306 0.152 -0.018
245 0 0.324 0.122 -0.011 0.306 0.152 -0.018 0.314 0.142 0.016
246 0 0.326 0.110 0.019 0.314 0.142 0.016 0.312 0.125 0.046
247 0 0.294 0.130 0.065 0.312 0.125 0.046 0.293 0.154 0.043
248 0 0.269 0.109 0.090 0.294 0.130 0.065 0.246 0.143 0.083
249 0 0.163 0.144 -0.051 0.180 0.169 -0.036 0.191 0.153 -0.067
250 0 0.231 0.152 -0.079 0.191 0.153 -0.067 0.216 0.175 -0.051
251 0 0.268 0.140 -0.078 0.231 0.152 -0.079 0.259 0.167 -0.056
252 0 0.296 0.120 -0.069 0.268 0.140 -0.078 0.290 0.151 -0.052
253 0 0.269 0.109 0.090 0.246 0.143 0.083 0.219 0.122 0.094
254 0 0.188 0.128 0.082 0.219 0.122 0.094 0.212 0.153 0.076
255 0 0.162 0.125 0.065 0.188 0.128 0.082 0.180 0.153 0.059
256 0 0.142 0.114 0.042 0.162 0.125 0.065 0.155 0.144 0.039
257 0 0.139 0.127 0.018 0.155 0.144 0.039 0.153 0.154 0.010
258 0 0.139 0.127 0.018 0.153 0.154 0.010 0.155 0.153 -0.020
259 0 0.142 0.125 -0.033 0.155 0.153 -0.020 0.163 0.144 -0.051
260 0 0.296 0.120 -0.069 0.290 0.151 -0.052 0.314 0.125 -0.041
261 0 0.324 0.122 -0.011 0.314 0.125 -0.041 0.306 0.152 -0.018
262 0 0.326 0.110 0.019 0.324 0.122 -0.011 0.314 0.142 0.016
263 0 0.319 0.093 0.046 0.326 0.110 0.019 0.312 0.125 0.046
264 0 0.319 0.093 0.046 0.312 0.125 0.046 0.294 0.130 0.065
265 0 0.300 0.091 0.072 0.294 0.130 0.065 0.269 0.109 0.090
266 0 0.175 0.124 -0.076 0.163 0.144 -0.051 0.191 0.153 -0.067
267 0 0.206 0.126 -0.090 0.191 0.153 -0.067 0.231 0.152 -0.079
268 0 0.241 0.120 -0.095 0.231 0.152 -0.079 0.268 0.140 -0.078
269 0 0.271 0.107 -0.090 0.268 0.140 -0.078 0.296 0.120 -0.069
270 0 0.236 0.082 0.099 0.269 0.109 0.090 0.219 0.122 0.094
271 0 0.195 0.095 0.094 0.219 0.122 0.094 0.188 0.128 0.082
272 0 0.173 0.099 0.082 0.188 0.128 0.082 0.162 0.125 0.065
273 0 0.153 0.094 0.064 0.162 0.125 0.065 0.142 0.114 0.042
274 0 0.139 0.127 0.018 0.142 0.114 0.042 0.155 0.144 0.039
275 0 0.142 0.125 -0.033 0.139 0.127 0.018 0.155 0.153 -0.020
276 0 0.175 0.124 -0.076 0.142 0.125 -0.033 0.163 0.144 -0.051
277 0 0.314 0.095 -0.055 0.296 0.120 -0.069 0.314 0.125 -0.041
278 0 0.325 0.096 -0.031 0.314 0.125 -0.041 0.324 0.122 -0.011
279 0 0.330 0.090 -0.007 0.324 0.122 -0.011 0.326 0.110 0.019
280 0 0.327 0.076 0.018 0.326 0.110 0.019 0.319 0.093 0.046
281 0 0.300 0.091 0.072 0.319 0.093 0.046 0.294 0.130 0.065
282 0 0.271 0.069 0.089 0.300 0.091 0.072 0.269 0.109 0.090
283 0 0.206 0.126 -0.090 0.175 0.124 -0.076 0.191 0.153 -0.067
284 0 0.241 0.120 -0.095 0.206 0.126 -0.090 0.231 0.152 -0.079
285 0 0.271 0.107 -0.090 0.241 0.120 -0.095 0.268 0.140 -0.078
286 0 0.295 0.087 -0.076 0.271 0.107 -0.090 0.296 0.120 -0.069
287 0 0.271 0.069 0.089 0.269 0.109 0.090 0.236 0.082 0.099
288 0 0.195 0.095 0.094 0.236 0.082 0.099 0.219 0.122 0.094
289 0 0.173 0.099 0.082 0.195 0.095 0.094 0.188 0.128 0.082
290 0 0.153 0.094 0.064 0.173 0.099 0.082 0.162 0.125 0.065
291 0 0.138 0.083 0.039 0.153 0.094 0.064 0.142 0.114 0.042
292 0 0.132 0.096 0.018 0.142 0.114 0.042 0.139 0.127 0.018
293 0 0.132 0.096 0.018 0.139 0.127 0.018 0.142 0.125 -0.033
294 0 0.150 0.090 -0.060 0.142 0.125 -0.033 0.175 0.124 -0.076
295 0 0.295 0.087 -0.076 0.296 0.120 -0.069 0.314 0.095 -0.055
296 0 0.325 0.096 -0.031 0.314 0.095 -0.055 0.314 0.125 -0.041
297 0 0.330 0.090 -0.007 0.325 0.096 -0.031 0.324 0.122 -0.011
298 0 0.327 0.076 0.018 0.330 0.090 -0.007 0.326 0.110 0.019
299 0 0.314 0.059 0.044 0.327 0.076 0.018 0.319 0.093 0.046
300 0 0.314 0.059 0.044 0.319 0.093 0.046 0.300 0.091 0.072
301 0 0.314 0.059 0.044 0.300 0.091 0.072 0.271 0.069 0.089
302 0 0.189 0.093 -0.091 0.175 0.124 -0.076 0.206 0.126 -0.090
303 0 0.218 0.093 -0.099 0.206 0.126 -0.090 0.241 0.120 -0.095
304 0 0.246 0.086 -0.099 0.241 0.120 -0.095 0.271 0.107 -0.090
305 0 0.268 0.074 -0.091 0.271 0.107 -0.090 0.295 0.087 -0.076
306 0 0.240 0.042 0.087 0.271 0.069 0.089 0.236 0.082 0.099
307 0 0.207 0.057 0.091 0.236 0.082 0.099 0.195 0.095 0.094
308 0 0.180 0.070 0.084 0.195 0.095 0.094 0.173 0.099 0.082
309 0 0.180 0.070 0.084 0.173 0.099 0.082 0.153 0.094 0.064
310 0 0.153 0.063 0.058 0.153 0.094 0.064 0.138 0.083 0.039
311 0 0.132 0.096 0.018 0.138 0.083 0.039 0.142 0.114 0.042
312 0 0.134 0.080 -0.026 0.132 0.096 0.018 0.142 0.125 -0.033
313 0 0.134 0.080 -0.026 0.142 0.125 -0.033 0.150 0.090 -0.060
314 0 0.189 0.093 -0.091 0.150 0.090 -0.060 0.175 0.124 -0.076
315 0 0.307 0.065 -0.058 0.295 0.087 -0.076 0.314 0.095 -0.055
316 0 0.307 0.065 -0.058 0.314 0.095 -0.055 0.325 0.096 -0.031
317 0 0.324 0.067 -0.025 0.325 0.096 -0.031 0.330 0.090 -0.007
318 0 0.324 0.067 -0.025 0.330 0.090 -0.007 0.327 0.076 0.018
319 0 0.317 0.042 0.012 0.327 0.076 0.018 0.314 0.059 0.044
320 0 0.280 0.030 0.062 0.314 0.059 0.044 0.271 0.069 0.089
321 0 0.218 0.093 -0.099 0.189 0.093 -0.091 0.206 0.126 -0.090
322 0 0.246 0.086 -0.099 0.218 0.093 -0.099 0.241 0.120 -0.095
323 0 0.268 0.074 -0.091 0.246 0.086 -0.099 0.271 0.107 -0.090
324 0 0.288 0.056 -0.074 0.268 0.074 -0.091 0.295 0.087 -0.076
325 0 0.280 0.030 0.062 0.271 0.069 0.089 0.240 0.042 0.087
326 0 0.207 0.057 0.091 0.240 0.042 0.087 0.236 0.082 0.099
327 0 0.180 0.070 0.084 0.207 0.057 0.091 0.195 0.095 0.094
328 0 0.153 0.063 0.058 0.180 0.070 0.084 0.153 0.094 0.064
329 0 0.142 0.053 0.031 0.153 0.063 0.058 0.138 0.083 0.039
330 0 0.142 0.053 0.031 0.138 0.083 0.039 0.132 0.096 0.018
331 0 0.142 0.053 0.031 0.132 0.096 0.018 0.134 0.080 -0.026
332 0 0.153 0.049 -0.048 0.134 0.080 -0.026 0.150 0.090 -0.060
333 0 0.173 0.057 -0.075 0.150 0.090 -0.060 0.189 0.093 -0.091
334 0 0.288 0.056 -0.074 0.295 0.087 -0.076 0.307 0.065 -0.058
335 0 0.324 0.067 -0.025 0.307 0.065 -0.058 0.325 0.096 -0.031
336 0 0.317 0.042 0.012 0.324 0.067 -0.025 0.327 0.076 0.018
337 0 0.280 0.030 0.062 0.317 0.042 0.012 0.314 0.059 0.044
338 0 0.204 0.063 -0.093 0.189 0.093 -0.091 0.218 0.093 -0.099
339 0 0.204 0.063 -0.093 0.218 0.093 -0.099 0.246 0.086 -0.099
340 0 0.243 0.056 -0.093 0.246 0.086 -0.099 0.268 0.074 -0.091
341 0 0.243 0.056 -0.093 0.268 0.074 -0.091 0.288 0.056 -0.074
342 0 0.241 0.009 0.057 0.280 0.030 0.062 0.240 0.042 0.087
343 0 0.210 0.024 0.072 0.240 0.042 0.087 0.207 0.057 0.091
344 0 0.185 0.039 0.073 0.207 0.057 0.091 0.180 0.070 0.084
345 0 0.185 0.039 0.073 0.180 0.070 0.084 0.153 0.063 0.058
346 0 0.165 0.031 0.047 0.153 0.063 0.058 0.142 0.053 0.031
347 0 0.148 0.034 -0.014 0.142 0.053 0.031 0.134 0.080 -0.026
348 0 0.148 0.034 -0.014 0.134 0.080 -0.026 0.153 0.049 -0.048
349 0 0.173 0.057 -0.075 0.153 0.049 -0.048 0.150 0.090 -0.060
350 0 0.204 0.063 -0.093 0.173 0.057 -0.075 0.189 0.093 -0.091
351 0 0.297 0.036 -0.051 0.288 0.056 -0.074 0.307 0.065 -0.058
352 0 0.297 0.036 -0.051 0.307 0.065 -0.058 0.324 0.067 -0.025
353 0 0.297 0.036 -0.051 0.324 0.067 -0.025 0.317 0.042 0.012
354 0 0.282 0.007 0.018 0.317 0.042 0.012 0.280 0.030 0.062
355 0 0.243 0.056 -0.093 0.204 0.063 -0.093 0.246 0.086 -0.099
356 0 0.261 0.028 -0.072 0.243 0.056 -0.093 0.288 0.056 -0.074
357 0 0.282 0.007 0.018 0.280 0.030 0.062 0.241 0.009 0.057
358 0 0.210 0.024 0.072 0.241 0.009 0.057 0.240 0.042 0.087
359 0 0.185 0.039 0.073 0.210 0.024 0.072 0.207 0.057 0.091
360 0 0.165 0.031 0.047 0.185 0.039 0.073 0.153 0.063 0.058
361 0 0.156 0.024 0.011 0.165 0.031 0.047 0.142 0.053 0.031
362 0 0.156 0.024 0.011 0.142 0.053 0.031 0.148 0.034 -0.014
363 0 0.173 0.018 -0.039 0.148 0.034 -0.014 0.153 0.049 -0.048
364 0 0.173 0.018 -0.039 0.153 0.049 -0.048 0.173 0.057 -0.075
365 0 0.200 0.030 -0.074 0.173 0.057 -0.075 0.204 0.063 -0.093
366 0 0.261 0.028 -0.072 0.288 0.056 -0.074 0.297 0.036 -0.051
367 0 0.286 0.008 -0.010 0.297 0.036 -0.051 0.317 0.042 0.012
368 0 0.286 0.008 -0.010 0.317 0.042 0.012 0.282 0.007 0.018
369 0 0.200 0.030 -0.074 0.204 0.063 -0.093 0.243 0.056 -0.093
370 0 0.200 0.030 -0.074 0.243 0.056 -0.093 0.261 0.028 -0.072
371 0 0.238 -0.009 0.014 0.282 0.007 0.018 0.241 0.009 0.057
372 0 0.206 0.002 0.040 0.241 0.009 0.057 0.210 0.024 0.072
373 0 0.206 0.002 0.040 0.210 0.024 0.072 0.185 0.039 0.073
374 0 0.206 0.002 0.040 0.185 0.039 0.073 0.165 0.031 0.047
375 0 0.206 0.002 0.040 0.165 0.031 0.047 0.156 0.024 0.011
376 0 0.173 0.018 -0.039 0.156 0.024 0.011 0.148 0.034 -0.014
377 0 0.200 0.030 -0.074 0.173 0.018 -0.039 0.173 0.057 -0.075
378 0 0.270 0.006 -0.036 0.261 0.028 -0.072 0.297 0.036 -0.051
379 0 0.270 0.006 -0.036 0.297 0.036 -0.051 0.286 0.008 -0.010
380 0 0.238 -0.009 0.014 0.286 0.008 -0.010 0.282 0.007 0.018
381 0 0.229 0.002 -0.047 0.200 0.030 -0.074 0.261 0.028 -0.072
382 0 0.206 0.002 0.040 0.238 -0.009 0.014 0.241 0.009 0.057
383 0 0.193 -0.003 -0.007 0.206 0.002 0.040 0.156 0.024 0.011
384 0 0.193 -0.003 -0.007 0.156 0.024 0.011 0.173 0.018 -0.039
385 0 0.229 0.002 -0.047 0.173 0.018 -0.039 0.200 0.030 -0.074
386 0 0.229 0.002 -0.047 0.261 0.028 -0.072 0.270 0.006 -0.036
387 0 0.238 -0.009 0.014 0.270 0.006 -0.036 0.286 0.008 -0.010
388 0 0.193 -0.003 -0.007 0.238 -0.009 0.014 0.206 0.002 0.040
389 0 0.229 0.002 -0.047 0.193 -0.003 -0.007 0.173 0.018 -0.039
390 0 0.238 -0.009 0.014 0.229 0.002 -0.047 0.270 0.006 -0.036
391 0 0.238 -0.009 0.014 0.193 -0.003 -0.007 0.229 0.002 -0.047
392 0 0.230 0.190 0.032 0.262 0.190 0.000 0.230 0.190 0.000
393 0 -0.259 0.185 0.015 -0.230 0.190 0.032 -0.230 0.190 0.000
394 0 -0.194 0.176 0.036 -0.198 0.190 0.000 -0.230 0.190 0.032
395 0 -0.215 0.185 -0.029 -0.230 0.190 0.000 -0.198 0.190 0.000
396 0 -0.257 0.174 0.047 -0.230 0.190 0.032 -0.259 0.185 0.015
397 0 -0.257 0.185 -0.017 -0.259 0.185 0.015 -0.230 0.190 0.000
398 0 -0.170 0.169 0.010 -0.198 0.190 0.000 -0.194 0.176 0.036
399 0 -0.220 0.169 0.060 -0.194 0.176 0.036 -0.230 0.190 0.032
400 0 -0.257 0.185 -0.017 -0.230 0.190 0.000 -0.215 0.185 -0.029
401 0 -0.182 0.174 -0.027 -0.215 0.185 -0.029 -0.198 0.190 0.000
402 0 -0.220 0.169 0.060 -0.230 0.190 0.032 -0.257 0.174 0.047
403 0 -0.285 0.168 0.029 -0.257 0.174 0.047 -0.259 0.185 0.015
404 0 -0.285 0.174 -0.003 -0.259 0.185 0.015 -0.257 0.185 -0.017
405 0 -0.182 0.174 -0.027 -0.198 0.190 0.000 -0.170 0.169 0.010
406 0 -0.167 0.154 0.043 -0.170 0.169 0.010 -0.194 0.176 0.036
407 0 -0.187 0.154 0.063 -0.194 0.176 0.036 -0.220 0.169 0.060
408 0 -0.244 0.175 -0.051 -0.257 0.185 -0.017 -0.215 0.185 -0.029
409 0 -0.201 0.167 -0.056 -0.215 0.185 -0.029 -0.182 0.174 -0.027
410 0 -0.248 0.153 0.076 -0.220 0.169 0.060 -0.257 0.174 0.047
411 0 -0.280 0.153 0.059 -0.257 0.174 0.047 -0.285 0.168 0.029
412 0 -0.285 0.174 -0.003 -0.285 0.168 0.029 -0.259 0.185 0.015
413 0 -0.280 0.169 -0.036 -0.285 0.174 -0.003 -0.257 0.185 -0.017
414 0 -0.154 0.152 -0.018 -0.182 0.174 -0.027 -0.170 0.169 0.010
415 0 -0.146 0.142 0.016 -0.170 0.169 0.010 -0.167 0.154 0.043
416 0 -0.187 0.154 0.063 -0.167 0.154 0.043 -0.194 0.176 0.036
417 0 -0.214 0.143 0.083 -0.187 0.154 0.063 -0.220 0.169 0.060
418 0 -0.280 0.169 -0.036 -0.257 0.185 -0.017 -0.244 0.175 -0.051
419 0 -0.201 0.167 -0.056 -0.244 0.175 -0.051 -0.215 0.185 -0.029
420 0 -0.170 0.151 -0.052 -0.201 0.167 -0.056 -0.182 0.174 -0.027
421 0 -0.214 0.143 0.083 -0.220 0.169 0.060 -0.248 0.153 0.076
422 0 -0.280 0.153 0.059 -0.248 0.153 0.076 -0.257 0.174 0.047
423 0 -0.305 0.144 0.039 -0.280 0.153 0.059 -0.285 0.168 0.029
424 0 -0.307 0.154 0.010 -0.285 0.168 0.029 -0.285 0.174 -0.003
425 0 -0.305 0.153 -0.020 -0.285 0.174 -0.003 -0.280 0.169 -0.036
426 0 -0.170 0.151 -0.052 -0.182 0.174 -0.027 -0.154 0.152 -0.018
427 0 -0.146 0.142 0.016 -0.154 0.152 -0.018 -0.170 0.169 0.010
428 0 -0.148 0.125 0.046 -0.146 0.142 0.016 -0.167 0.154 0.043
429 0 -0.166 0.130 0.065 -0.167 0.154 0.043 -0.187 0.154 0.063
430 0 -0.166 0.130 0.065 -0.187 0.154 0.063 -0.214 0.143 0.083
431 0 -0.269 0.153 -0.067 -0.280 0.169 -0.036 -0.244 0.175 -0.051
432 0 -0.229 0.152 -0.079 -0.244 0.175 -0.051 -0.201 0.167 -0.056
433 0 -0.192 0.140 -0.078 -0.201 0.167 -0.056 -0.170 0.151 -0.052
434 0 -0.241 0.122 0.094 -0.214 0.143 0.083 -0.248 0.153 0.076
435 0 -0.272 0.128 0.082 -0.248 0.153 0.076 -0.280 0.153 0.059
436 0 -0.298 0.125 0.065 -0.280 0.153 0.059 -0.305 0.144 0.039
437 0 -0.307 0.154 0.010 -0.305 0.144 0.039 -0.285 0.168 0.029
438 0 -0.305 0.153 -0.020 -0.307 0.154 0.010 -0.285 0.174 -0.003
439 0 -0.297 0.144 -0.051 -0.305 0.153 -0.020 -0.280 0.169 -0.036
440 0 -0.146 0.125 -0.041 -0.170 0.151 -0.052 -0.154 0.152 -0.018
441 0 -0.136 0.122 -0.011 -0.154 0.152 -0.018 -0.146 0.142 0.016
442 0 -0.134 0.110 0.019 -0.146 0.142 0.016 -0.148 0.125 0.046
443 0 -0.166 0.130 0.065 -0.148 0.125 0.046 -0.167 0.154 0.043
444 0 -0.191 0.109 0.090 -0.166 0.130 0.065 -0.214 0.143 0.083
445 0 -0.297 0.144 -0.051 -0.280 0.169 -0.036 -0.269 0.153 -0.067
446 0 -0.229 0.152 -0.079 -0.269 0.153 -0.067 -0.244 0.175 -0.051
447 0 -0.192 0.140 -0.078 -0.229 0.152 -0.079 -0.201 0.167 -0.056
448 0 -0.164 0.120 -0.069 -0.192 0.140 -0.078 -0.170 0.151 -0.052
449 0 -0.191 0.109 0.090 -0.214 0.143 0.083 -0.241 0.122 0.094
450 0 -0.272 0.128 0.082 -0.241 0.122 0.094 -0.248 0.153 0.076
451 0 -0.298 0.125 0.065 -0.272 0.128 0.082 -0.280 0.153 0.059
452 0 -0.318 0.114 0.042 -0.298 0.125 0.065 -0.305 0.144 0.039
453 0 -0.321 0.127 0.018 -0.305 0.144 0.039 -0.307 0.154 0.010
454 0 -0.321 0.127 0.018 -0.307 0.154 0.010 -0.305 0.153 -0.020
455 0 -0.318 0.125 -0.033 -0.305 0.153 -0.020 -0.297 0.144 -0.051
456 0 -0.164 0.120 -0.069 -0.170 0.151 -0.052 -0.146 0.125 -0.041
457 0 -0.136 0.122 -0.011 -0.146 0.125 -0.041 -0.154 0.152 -0.018
458 0 -0.134 0.110 0.019 -0.136 0.122 -0.011 -0.146 0.142 0.016
459 0 -0.141 0.093 0.046 -0.134 0.110 0.019 -0.148 0.125 0.046
460 0 -0.141 0.093 0.046 -0.148 0.125 0.046 -0.166 0.130 0.065
461 0 -0.160 0.091 0.072 -0.166 0.130 0.065 -0.191 0.109 0.090
462 0 -0.285 0.124 -0.076 -0.297 0.144 -0.051 -0.269 0.153 -0.067
463 0 -0.254 0.126 -0.090 -0.269 0.153 -0.067 -0.229 0.152 -0.079
464 0 -0.219 0.120 -0.095 -0.229 0.152 -0.079 -0.192 0.140 -0.078
465 0 -0.189 0.107 -0.090 -0.192 0.140 -0.078 -0.164 0.120 -0.069
466 0 -0.224 0.082 0.099 -0.191 0.109 0.090 -0.241 0.122 0.094
467 0 -0.265 0.095 0.094 -0.241 0.122 0.094 -0.272 0.128 0.082
468 0 -0.287 0.099 0.082 -0.272 0.128 0.082 -0.298 0.125 0.065
469 0 -0.307 0.094 0.064 -0.298 0.125 0.065 -0.318 0.114 0.042
470 0 -0.321 0.127 0.018 -0.318 0.114 0.042 -0.305 0.144 0.039
471 0 -0.318 0.125 -0.033 -0.321 0.127 0.018 -0.305 0.153 -0.020
472 0 -0.285 0.124 -0.076 -0.318 0.125 -0.033 -0.297 0.144 -0.051
473 0 -0.146 0.095 -0.055 -0.164 0.120 -0.069 -0.146 0.125 -0.041
474 0 -0.135 0.096 -0.031 -0.146 0.125 -0.041 -0.136 0.122 -0.011
475 0 -0.130 0.090 -0.007 -0.136 0.122 -0.011 -0.134 0.110 0.019
476 0 -0.133 0.076 0.018 -0.134 0.110 0.019 -0.141 0.093 0.046
477 0 -0.160 0.091 0.072 -0.141 0.093 0.046 -0.166 0.130 0.065
478 0 -0.189 0.069 0.089 -0.160 0.091 0.072 -0.191 0.109 0.090
479 0 -0.254 0.126 -0.090 -0.285 0.124 -0.076 -0.269 0.153 -0.067